
Host: peacock04

Timers On : Wed Sep 13 21:48:42 2023
Timers Off: Wed Sep 13 21:48:43 2023

Wall Time:        1.12 seconds

                                                       Time (seconds)
Module                                       User      System        Wall        Calls

--------------------------------------------------------------------------------------

**************************************************************************************

Host: peacock04

Timers On : Wed Sep 13 21:49:16 2023
Timers Off: Wed Sep 13 21:49:58 2023

Wall Time:       42.26 seconds

                                                       Time (seconds)
Module                                       User      System        Wall        Calls

--------------------------------------------------------------------------------------

**************************************************************************************

Host: peacock04

Timers On : Wed Sep 13 21:50:38 2023
Timers Off: Wed Sep 13 21:50:39 2023

Wall Time:        0.50 seconds

                                                       Time (seconds)
Module                                       User      System        Wall        Calls

--------------------------------------------------------------------------------------

**************************************************************************************

Host: peacock04

Timers On : Wed Sep 13 22:10:02 2023
Timers Off: Wed Sep 13 22:10:02 2023

Wall Time:        0.37 seconds

                                                       Time (seconds)
Module                                       User      System        Wall        Calls

--------------------------------------------------------------------------------------

**************************************************************************************

Host: peacock04

Timers On : Wed Sep 13 22:21:33 2023
Timers Off: Wed Sep 13 22:21:37 2023

Wall Time:        4.02 seconds

                                                       Time (seconds)
Module                                       User      System        Wall        Calls

--------------------------------------------------------------------------------------

**************************************************************************************

Host: peacock04

Timers On : Wed Sep 13 22:36:56 2023
Timers Off: Wed Sep 13 22:37:31 2023

Wall Time:       34.91 seconds

                                                       Time (seconds)
Module                                       User      System        Wall        Calls

--------------------------------------------------------------------------------------

**************************************************************************************

Host: peacock04

Timers On : Wed Sep 13 22:37:48 2023
Timers Off: Wed Sep 13 22:37:52 2023

Wall Time:        4.40 seconds

                                                       Time (seconds)
Module                                       User      System        Wall        Calls

--------------------------------------------------------------------------------------

**************************************************************************************

Host: peacock04

Timers On : Wed Sep 13 22:38:09 2023
Timers Off: Wed Sep 13 22:38:47 2023

Wall Time:       37.96 seconds

                                                       Time (seconds)
Module                                       User      System        Wall        Calls

--------------------------------------------------------------------------------------

**************************************************************************************

Host: peacock04

Timers On : Wed Sep 13 22:40:33 2023
Timers Off: Wed Sep 13 22:40:37 2023

Wall Time:        4.29 seconds

                                                       Time (seconds)
Module                                       User      System        Wall        Calls

--------------------------------------------------------------------------------------

**************************************************************************************

Host: peacock04

Timers On : Wed Sep 13 22:44:52 2023
Timers Off: Wed Sep 13 22:44:56 2023

Wall Time:        4.09 seconds

                                                       Time (seconds)
Module                                       User      System        Wall        Calls

--------------------------------------------------------------------------------------

**************************************************************************************

Host: peacock04

Timers On : Wed Sep 13 22:46:05 2023
Timers Off: Wed Sep 13 22:46:07 2023

Wall Time:        1.51 seconds

                                                       Time (seconds)
Module                                       User      System        Wall        Calls

--------------------------------------------------------------------------------------

**************************************************************************************

Host: peacock04

Timers On : Wed Sep 13 22:53:36 2023
Timers Off: Wed Sep 13 22:53:38 2023

Wall Time:        1.67 seconds

                                                       Time (seconds)
Module                                       User      System        Wall        Calls

--------------------------------------------------------------------------------------

**************************************************************************************

Host: peacock04

Timers On : Wed Sep 13 22:55:48 2023
Timers Off: Wed Sep 13 22:55:51 2023

Wall Time:        3.00 seconds

                                                       Time (seconds)
Module                                       User      System        Wall        Calls

--------------------------------------------------------------------------------------

**************************************************************************************

Host: peacock04

Timers On : Wed Sep 13 22:57:53 2023
Timers Off: Wed Sep 13 22:57:55 2023

Wall Time:        2.25 seconds

                                                       Time (seconds)
Module                                       User      System        Wall        Calls

--------------------------------------------------------------------------------------

**************************************************************************************

Host: peacock04

Timers On : Wed Sep 13 22:58:10 2023
Timers Off: Wed Sep 13 22:58:12 2023

Wall Time:        1.17 seconds

                                                       Time (seconds)
Module                                       User      System        Wall        Calls

--------------------------------------------------------------------------------------

**************************************************************************************

Host: peacock04

Timers On : Wed Sep 13 23:00:09 2023
Timers Off: Wed Sep 13 23:00:11 2023

Wall Time:        2.22 seconds

                                                       Time (seconds)
Module                                       User      System        Wall        Calls

--------------------------------------------------------------------------------------

**************************************************************************************

Host: peacock04

Timers On : Wed Sep 13 23:07:11 2023
Timers Off: Wed Sep 13 23:07:13 2023

Wall Time:        2.20 seconds

                                                       Time (seconds)
Module                                       User      System        Wall        Calls

--------------------------------------------------------------------------------------

**************************************************************************************

Host: peacock04

Timers On : Wed Sep 13 23:09:01 2023
Timers Off: Wed Sep 13 23:09:23 2023

Wall Time:       22.11 seconds

                                                       Time (seconds)
Module                                       User      System        Wall        Calls
V: Grid                             :      2.083u      0.067s      0.644w      5 calls
build grid                          :      1.167u      0.017s      0.359w      5 calls
post-process grid                   :      0.917u      0.050s      0.280w      5 calls
DFH: sparsity prep                  :      0.017u      0.000s      0.050w      6 calls
Libint2ERI::Libint2ERI              :      0.100u      0.017s      0.061w     49 calls
DFH: initialize()                   :      0.683u      0.017s      0.278w      6 calls
Libint2ErfERI::Libint2ErfERI        :      0.083u      0.017s      0.029w     20 calls
DFH: AO Construction                :      0.017u      0.000s      0.017w      6 calls
DFH: AO-Met. Contraction            :      0.067u      0.000s      0.009w     11 calls
DFH: wAO Construction               :      0.050u      0.000s      0.023w      5 calls
DFH: wAO Copy                       :      0.033u      0.000s      0.003w      5 calls
HF: Form core H                     :      0.067u      0.017s      0.042w      6 calls
HF: Form S/X                        :      0.017u      0.000s      0.006w      6 calls
HF: Guess                           :      0.317u      0.017s      0.122w      6 calls
SAD Guess                           :      0.317u      0.017s      0.119w      2 calls
HF: Form G                          :     25.283u      0.067s      7.623w     44 calls
RV: Form V                          :     25.167u      0.050s      7.592w     37 calls
Properties                          :      5.783p                          87658 calls
Functional                          :      7.202p                          87658 calls
V_xc                                :      4.421p                          77217 calls
JK: D                               :      0.000u      0.000s      0.000w     44 calls
JK: USO2AO                          :      0.000u      0.000s      0.000w     44 calls
JK: JK                              :      0.067u      0.017s      0.028w     44 calls
DFH: compute_JK()                   :      0.017u      0.000s      0.014w     44 calls
DFH: Grabbing AOs                   :      0.000u      0.000s      0.000w     44 calls
DFH: compute_J                      :      0.000u      0.000s      0.005w     44 calls
DFH: compute_K                      :      0.017u      0.000s      0.007w     44 calls
DFH: compute_wK()                   :      0.050u      0.017s      0.014w     37 calls
JK: AO2USO                          :      0.000u      0.000s      0.000w     44 calls
HF: Form F                          :      0.000u      0.000s      0.001w     44 calls
HF: Form D                          :      0.000u      0.000s      0.000w     44 calls
HF: DIIS                            :      0.383u      0.017s      0.132w     42 calls
HF: Form C                          :      0.083u      0.000s      0.019w     42 calls
Grad: V T Perturb                   :      0.000u      0.000s      0.003w      5 calls
Grad: S                             :      0.000u      0.000s      0.001w      5 calls
Grad: JK                            :      0.933u      0.083s      0.366w      5 calls
JKGrad: Amn                         :      0.167u      0.000s      0.045w      5 calls
JKGrad: Awmn                        :      0.183u      0.017s      0.053w      5 calls
JKGrad: AB                          :      0.100u      0.000s      0.036w      5 calls
JKGrad: UV                          :      0.000u      0.000s      0.002w      5 calls
JKGrad: ABx                         :      0.050u      0.000s      0.015w      5 calls
JKGrad: Amnx                        :      0.300u      0.017s      0.098w      5 calls
Grad: XC                            :      6.600u      0.000s      1.978w      5 calls
V_xc gradient                       :      1.633p                          10441 calls

--------------------------------------------------------------------------------------
V: Grid                             :      2.083u      0.067s      0.644w      5 calls
| build grid                        :      1.167u      0.017s      0.359w      5 calls
| post-process grid                 :      0.917u      0.050s      0.280w      5 calls
DFH: sparsity prep                  :      0.017u      0.000s      0.050w      6 calls
| Libint2ERI::Libint2ERI            :      0.000u      0.000s      0.039w      6 calls
DFH: initialize()                   :      0.683u      0.017s      0.278w      6 calls
| Libint2ERI::Libint2ERI            :      0.033u      0.000s      0.008w     18 calls
| Libint2ErfERI::Libint2ErfERI      :      0.033u      0.000s      0.009w      5 calls
| DFH: AO Construction              :      0.017u      0.000s      0.017w      6 calls
| DFH: AO-Met. Contraction          :      0.067u      0.000s      0.009w     11 calls
| DFH: wAO Construction             :      0.050u      0.000s      0.023w      5 calls
| DFH: wAO Copy                     :      0.033u      0.000s      0.003w      5 calls
HF: Form core H                     :      0.067u      0.017s      0.042w      6 calls
HF: Form S/X                        :      0.017u      0.000s      0.006w      6 calls
HF: Guess                           :      0.317u      0.017s      0.122w      6 calls
| SAD Guess                         :      0.317u      0.017s      0.119w      2 calls
HF: Form G                          :     25.283u      0.067s      7.623w     44 calls
| RV: Form V                        :     25.167u      0.050s      7.592w     37 calls
| | Properties                      :      4.340p                          77217 calls
| | Functional                      :      6.347p                          77217 calls
| | V_xc                            :      4.421p                          77217 calls
| JK: D                             :      0.000u      0.000s      0.000w     44 calls
| JK: USO2AO                        :      0.000u      0.000s      0.000w     44 calls
| JK: JK                            :      0.067u      0.017s      0.028w     44 calls
| | DFH: compute_JK()               :      0.017u      0.000s      0.014w     44 calls
| | | DFH: Grabbing AOs             :      0.000u      0.000s      0.000w     44 calls
| | | DFH: compute_J                :      0.000u      0.000s      0.005w     44 calls
| | | DFH: compute_K                :      0.017u      0.000s      0.007w     44 calls
| | DFH: compute_wK()               :      0.050u      0.017s      0.014w     37 calls
| JK: AO2USO                        :      0.000u      0.000s      0.000w     44 calls
HF: Form F                          :      0.000u      0.000s      0.001w     44 calls
HF: Form D                          :      0.000u      0.000s      0.000w     44 calls
HF: DIIS                            :      0.383u      0.017s      0.132w     42 calls
HF: Form C                          :      0.083u      0.000s      0.019w     42 calls
Grad: V T Perturb                   :      0.000u      0.000s      0.003w      5 calls
Grad: S                             :      0.000u      0.000s      0.001w      5 calls
Grad: JK                            :      0.933u      0.083s      0.366w      5 calls
| JKGrad: Amn                       :      0.167u      0.000s      0.045w      5 calls
| | Libint2ERI::Libint2ERI          :      0.033u      0.000s      0.008w      5 calls
| JKGrad: Awmn                      :      0.183u      0.017s      0.053w      5 calls
| | Libint2ErfERI::Libint2ErfERI    :      0.050u      0.017s      0.015w     10 calls
| JKGrad: AB                        :      0.100u      0.000s      0.036w      5 calls
| | Libint2ERI::Libint2ERI          :      0.000u      0.000s      0.000w     10 calls
| JKGrad: UV                        :      0.000u      0.000s      0.002w      5 calls
| JKGrad: ABx                       :      0.050u      0.000s      0.015w      5 calls
| | Libint2ERI::Libint2ERI          :      0.000u      0.000s      0.000w      5 calls
| JKGrad: Amnx                      :      0.300u      0.017s      0.098w      5 calls
| | Libint2ERI::Libint2ERI          :      0.033u      0.017s      0.006w      5 calls
| | Libint2ErfERI::Libint2ErfERI    :      0.000u      0.000s      0.006w      5 calls
Grad: XC                            :      6.600u      0.000s      1.978w      5 calls
| Properties                        :      1.443p                          10441 calls
| Functional                        :      0.855p                          10441 calls
| V_xc gradient                     :      1.633p                          10441 calls

**************************************************************************************
