
Host: peacock04

Timers On : Wed Sep 13 23:09:05 2023
Timers Off: Wed Sep 13 23:09:06 2023

Wall Time:        0.64 seconds

                                                       Time (seconds)
Module                                       User      System        Wall        Calls

--------------------------------------------------------------------------------------

**************************************************************************************
